FROM registry.access.redhat.com/ubi8/dotnet-31

VOLUME /publish
# Don't call home
ENV DOTNET_CLI_TELEMETRY_OPTOUT=1
# Path to Calamari exe
ENV CalamariBinaries_RelativePath=/publish/Calamari.Terraform/linux-x64
# Forces CI
ENV TEAMCITY_VERSION=1.2.3

WORKDIR /publish/Sashimi.Terraform.Tests

ENTRYPOINT ["dotnet", "vstest", "Sashimi.Terraform.Tests.dll", "--TestCaseFilter:TestCategory != Windows", "--logger:trx"]